% Model:              Untitled.mph
% Version:            COMSOL 6.1.0.252
% Date:               Apr 27 2023, 13:32
% Table:              Table 1 - 
% l_out                  m_out                    l_in                     m_in                     p_in                     freq (THz)               ap (1)                   am (1)
1                        -1                       1                        -1                       1                        400                      -0.0013999214343571244+0.026849345720156435i -0.0013747510491420403+0.024178879014223994i
1                        -1                       1                        -1                       1                        600                      -0.015872974078752707+0.09730183602102081i -0.015372350026703003+0.07526869009534018i
1                        -1                       1                        -1                       -1                       400                      -0.0013695898795447207+0.024176010663020123i -0.0013960878952168185+0.026845273971781044i
1                        -1                       1                        -1                       -1                       600                      -0.015365701042913875+0.07526804521560282i -0.01587142198195571+0.0972972717627512i
1                        -1                       1                        0                        1                        400                      1.821105692996254E-5-2.0281365539060996E-6i 1.8632985895024633E-5-3.1875791929420066E-6i
1                        -1                       1                        0                        1                        600                      7.579403158476552E-5+1.4562554859922413E-5i 7.464239716464921E-5+6.208928793230867E-6i
1                        -1                       1                        0                        -1                       400                      2.0262889589674223E-5-2.0312590282477893E-6i 1.9673054867814095E-5-1.4564054602229143E-6i
1                        -1                       1                        0                        -1                       600                      7.906953722139063E-5+1.5059513176898265E-5i 7.37498765387097E-5+1.84772507928269E-5i
1                        -1                       1                        1                        1                        400                      -1.3505009312628091E-4+0.0010130451830569975i -1.3347693802079935E-4+0.0011094204312618028i
1                        -1                       1                        1                        1                        600                      -0.0014606022919787132+0.0032811237223218533i -0.0014929804841890587+0.004171560093412053i
1                        -1                       1                        1                        -1                       400                      -1.3634159227294458E-4+0.0011084700035253207i -1.3441055680958857E-4+0.0010138750454790997i
1                        -1                       1                        1                        -1                       600                      -0.001494555757110118+0.004177219035508699i -0.001451091359341612+0.003286175875824561i
1                        -1                       2                        -2                       1                        400                      1.4984010308050521E-6+1.3101561306284352E-6i 1.8152737975284835E-6+1.0439855103455876E-6i
1                        -1                       2                        -2                       1                        600                      7.373243157328598E-6+6.707313043766708E-6i 9.26076552229915E-6+5.0135295053921035E-6i
1                        -1                       2                        -2                       -1                       400                      1.2722148230305859E-6+5.98876459607088E-7i 1.1992253943233266E-6+5.430384302313982E-7i
1                        -1                       2                        -2                       -1                       600                      6.621919819981509E-6+7.3797692827482395E-6i 6.948676491494208E-6+4.415374935323594E-6i
1                        -1                       2                        -1                       1                        400                      5.5220370200313374E-5+4.668436585953788E-6i -6.459948531434264E-5+5.951500917826136E-6i
1                        -1                       2                        -1                       1                        600                      4.7151943263171306E-4+2.618991234071548E-5i -5.620940814787777E-4+2.7785993390930082E-6i
1                        -1                       2                        -1                       -1                       400                      6.521523410987918E-5+4.68360068816723E-6i -5.615896947953219E-5+2.29113504116176E-6i
1                        -1                       2                        -1                       -1                       600                      5.510707782775408E-4+4.7510314168800964E-5i -4.8395801158493634E-4+1.0286542246842325E-5i
1                        -1                       2                        0                        1                        400                      8.926764146302551E-7+5.609507945740049E-7i 1.153568321646796E-6+9.739491690813828E-7i
1                        -1                       2                        0                        1                        600                      7.67523935421502E-7+3.5081294858791406E-6i 4.0574806015195553E-7+7.083020288828976E-6i
1                        -1                       2                        0                        -1                       400                      3.19116518936056E-7+5.010853994251268E-7i -8.159660748650689E-8+1.3006202736999171E-6i
1                        -1                       2                        0                        -1                       600                      2.439400369243708E-6+4.03702115341717E-6i 1.4565903683702503E-7+9.309906771842937E-6i
1                        -1                       2                        1                        1                        400                      -1.837195176133929E-5+7.146204218317822E-7i 2.2026170535225077E-5+6.507308828718196E-7i
1                        -1                       2                        1                        1                        600                      -1.5521241804385203E-4+3.0990897007391227E-6i 1.8600524662686245E-4+1.1856518956300245E-5i
1                        -1                       2                        1                        -1                       400                      -2.1906269338568677E-5+9.81426415402963E-7i 1.8316596750189145E-5+9.474526091971817E-7i
1                        -1                       2                        1                        -1                       600                      -1.8727724035087895E-4-2.0316983716494393E-6i 1.5327328578050518E-4+5.580072431576894E-6i
1                        -1                       2                        2                        1                        400                      -1.8643450764546698E-6-2.0666568523061086E-6i -1.302853022256794E-6-1.3413711642508566E-6i
1                        -1                       2                        2                        1                        600                      -1.0123340080499785E-5-1.162705177447369E-5i -7.163943435105778E-6-7.2165216636464485E-6i
1                        -1                       2                        2                        -1                       400                      -1.7965696124418081E-6-5.876171161157638E-7i -1.7414341850017027E-6-1.214959542297588E-6i
1                        -1                       2                        2                        -1                       600                      -1.0025741289872413E-5-5.993203000390773E-6i -7.953463777170323E-6-8.531739347536688E-6i
1                        -1                       3                        -3                       1                        400                      -5.219433362679981E-7+1.1712730503090444E-6i -5.253163269394584E-7+1.045873543946821E-6i
1                        -1                       3                        -3                       1                        600                      -7.554642344060921E-6+7.004329937075651E-6i -7.435655525915885E-6+3.99413277627686E-6i
1                        -1                       3                        -3                       -1                       400                      -7.416752743596827E-7+8.288056908140285E-7i -7.064028066223637E-7+8.824929922888611E-7i
1                        -1                       3                        -3                       -1                       600                      -7.4509754830161805E-6+4.077866535470881E-6i -7.5735653834934205E-6+6.08737106789866E-6i
1                        -1                       3                        -2                       1                        400                      -5.407867187084271E-7+1.0301994173075625E-7i -2.9428291988378143E-7+5.0874607970770486E-8i
1                        -1                       3                        -2                       1                        600                      -4.4725175914527306E-6-8.791930755339466E-7i -2.8186205607926022E-6-1.0160514649041658E-6i
1                        -1                       3                        -2                       -1                       400                      -2.3626293050781082E-7-1.9779780478502213E-7i -3.8373480607488674E-7-2.3346090010836993E-7i
1                        -1                       3                        -2                       -1                       600                      -2.7900824543169825E-6-1.0507705121764138E-6i -3.3155727134825696E-6-1.6517668405158926E-6i
1                        -1                       3                        -1                       1                        400                      -1.338184412328302E-6+3.776277522248701E-5i -1.3611893137969526E-6+4.3763432754227555E-5i
1                        -1                       3                        -1                       1                        600                      -5.719644053818784E-5+2.9627690951711266E-4i -6.284894155612782E-5+3.704163538151887E-4i
1                        -1                       3                        -1                       -1                       400                      -1.1155509095101759E-6+4.354192603094799E-5i -1.0744614263823912E-6+3.750650500262034E-5i
1                        -1                       3                        -1                       -1                       600                      -6.160601275720644E-5+3.707645819829138E-4i -5.566777881119788E-5+2.9686621504652384E-4i
1                        -1                       3                        0                        1                        400                      -1.0150160779443081E-7+1.734825677469369E-7i 1.161240314534517E-8+1.3351941487929816E-7i
1                        -1                       3                        0                        1                        600                      -2.372197074837309E-6+7.250208134448817E-7i -1.2394855176327673E-6+6.545347130554626E-7i
1                        -1                       3                        0                        -1                       400                      -3.784134138279998E-7-1.2710085199594193E-9i -4.250943145431477E-7+2.1740248946072772E-8i
1                        -1                       3                        0                        -1                       600                      -1.7708013422249424E-6+3.386951346733543E-7i -1.8452727486205458E-6+3.1502474639323487E-7i
1                        -1                       3                        1                        1                        400                      -3.884064868304929E-7+1.989440337205441E-6i -4.635847252796634E-7+1.8436515295590526E-6i
1                        -1                       3                        1                        1                        600                      -6.045491566653785E-6+1.8545726206921027E-5i -6.8518334108079755E-6+1.52614374326001E-5i
1                        -1                       3                        1                        -1                       400                      -3.14362137950238E-8+2.1300951150520306E-6i -4.923694263320265E-8+2.3050855929324685E-6i
1                        -1                       3                        1                        -1                       600                      -6.106153999055745E-6+1.539255104651622E-5i -6.489252650519762E-6+1.8862505923717572E-5i
1                        -1                       3                        2                        1                        400                      5.051605838522745E-8+2.773803759281634E-7i 3.0946151866957094E-7+2.800354110166229E-7i
1                        -1                       3                        2                        1                        600                      9.69835686262589E-7+1.9538494052622962E-6i 2.8930495917579527E-6+2.421222118843675E-6i
1                        -1                       3                        2                        -1                       400                      5.312457415932776E-7+4.48956929939849E-8i 3.8492385966550363E-7+1.6622849661656293E-9i
1                        -1                       3                        2                        -1                       600                      2.9345903317427945E-6+2.3366169484452084E-6i 2.436338865214182E-6+1.6305748006498326E-6i
1                        -1                       3                        3                        1                        400                      1.7258773929539427E-6+3.979922259264499E-5i 1.0457635249777338E-6+5.314218261522904E-5i
1                        -1                       3                        3                        1                        600                      -5.441338651577741E-5+3.238196192216997E-4i -7.247822634125572E-5+4.516435784615304E-4i
1                        -1                       3                        3                        -1                       400                      3.4814347978650965E-7+5.3316973126517893E-5i 9.988408339296774E-7+3.99706997372842E-5i
1                        -1                       3                        3                        -1                       600                      -7.321082040384092E-5+4.5155728802308043E-4i -5.566133059021142E-5+3.236244754876776E-4i
1                        0                        1                        -1                       1                        400                      -1.8958397515033267E-5-6.930325696686899E-6i -1.9506380179118814E-5-6.877118498666365E-6i
1                        0                        1                        -1                       1                        600                      -6.427515401246401E-5-4.0134373496048894E-5i -7.158719622787555E-5-4.04462048770741E-5i
1                        0                        1                        -1                       -1                       400                      -1.7287931872453157E-5-8.477758037475264E-6i -1.705028655824364E-5-5.925905002108617E-6i
1                        0                        1                        -1                       -1                       600                      -5.965473834260346E-5-5.188321706736669E-5i -6.273286842147263E-5-3.6933926180413464E-5i
1                        0                        1                        0                        1                        400                      -0.001742290614334614+0.02977952760147196i -0.0017194444704797642+0.027369425101550937i
1                        0                        1                        0                        1                        600                      -0.020070857728267083+0.10689375886142055i -0.01967325031358258+0.08730678364646259i
1                        0                        1                        0                        -1                       400                      -0.001721926323553235+0.02737261598301902i -0.0017445755876487566+0.029780088864689844i
1                        0                        1                        0                        -1                       600                      -0.019673144207556927+0.08731076022540381i -0.02007136573441105+0.10688298738035763i
1                        0                        1                        1                        1                        400                      -2.1213569094654944E-5+2.2240564885128464E-6i -2.1852689250432516E-5+2.412075362530632E-6i
1                        0                        1                        1                        1                        600                      -7.51523921296755E-5-1.705209559194112E-5i -8.25746287231717E-5-1.732842279451779E-5i
1                        0                        1                        1                        -1                       400                      -1.9348691327080436E-5+5.379506481099815E-6i -1.9303195528531664E-5+3.378406717043715E-6i
1                        0                        1                        1                        -1                       600                      -7.357597654509716E-5-2.7881260840160998E-6i -7.664831746620162E-5-1.5575951520345245E-5i
1                        0                        2                        -2                       1                        400                      2.7642226767419933E-5+5.101655321002072E-7i -2.9552534857758656E-5-3.4551727308750596E-7i
1                        0                        2                        -2                       1                        600                      2.24274938268004E-4+4.881430656602261E-6i -2.5910256727643214E-4-1.2246436726769494E-5i
1                        0                        2                        -2                       -1                       400                      3.237995895352796E-5+6.197806306888669E-7i -2.498729334595911E-5+2.493804835237006E-8i
1                        0                        2                        -2                       -1                       600                      2.69971187942867E-4+1.589606815949679E-5i -2.1400965475581226E-4-1.3463441718946516E-6i
1                        0                        2                        -1                       1                        400                      1.2774483613548982E-6+1.5592876869925253E-6i 9.835877248524336E-7+1.4104418038438422E-6i
1                        0                        2                        -1                       1                        600                      5.9717337821871975E-6+8.362089042522818E-6i 5.588227922286759E-6+8.854750016533707E-6i
1                        0                        2                        -1                       -1                       400                      7.241861941393136E-7+2.305139865192794E-6i 1.4104364663306016E-6+2.441603801635206E-6i
1                        0                        2                        -1                       -1                       600                      3.615652626766289E-6+1.1531772648819955E-5i 7.082688340962134E-6+1.3209526334727904E-5i
1                        0                        2                        0                        1                        400                      9.530997303674885E-7-1.6312037636946498E-7i 1.3195837164776203E-6-1.4019438549591218E-6i
1                        0                        2                        0                        1                        600                      -1.0052233319848784E-6+3.84359718547381E-6i 1.2026509271721028E-6-7.496800853236143E-7i
1                        0                        2                        0                        -1                       400                      -3.422375202022174E-6+9.528709117570794E-7i -3.7670194902754486E-6+2.3957447384603294E-6i
1                        0                        2                        0                        -1                       600                      -1.6760863039396896E-6-1.2933168582118606E-6i -3.744249546702165E-6+4.396471957316379E-6i
1                        0                        2                        1                        1                        400                      1.7449928341971699E-6-9.248291136190984E-7i 1.4673481673547171E-6-1.023309735961421E-6i
1                        0                        2                        1                        1                        600                      9.164359363506725E-6-4.069604388079037E-6i 8.975489778428404E-6-6.449414564163986E-6i
1                        0                        2                        1                        -1                       400                      1.4309718193746802E-6-1.7991421593136588E-6i 2.170182569724682E-6-1.8191227277743775E-6i
1                        0                        2                        1                        -1                       600                      8.542155434254171E-6-8.331859184798937E-6i 1.2501943060951379E-5-9.010917600956671E-6i
1                        0                        2                        2                        1                        400                      -2.7380693991863917E-5-7.348907182406909E-8i 2.965652968596997E-5-5.866448565490183E-7i
1                        0                        2                        2                        1                        600                      -2.234149318254152E-4-1.7780021315941328E-6i 2.591048141895044E-4+7.359030233038549E-6i
1                        0                        2                        2                        -1                       400                      -3.170487421339009E-5-1.8932127087318097E-7i 2.572789659490557E-5-4.7048167184920213E-7i
1                        0                        2                        2                        -1                       600                      -2.701198619444749E-4-9.219633962493752E-6i 2.1429200588548984E-4-1.7980918588546845E-7i
1                        0                        3                        -3                       1                        400                      -3.7546326181558793E-7+2.171023323316601E-8i -4.5615037448974365E-7+6.779911357291781E-8i
1                        0                        3                        -3                       1                        600                      -1.2258170888865207E-6+2.8632997460607045E-7i -1.866761795867467E-6+1.010703996846541E-6i
1                        0                        3                        -3                       -1                       400                      5.5657619438842716E-8+1.2010998891784254E-7i 1.220717704995459E-7+1.7399380330729015E-7i
1                        0                        3                        -3                       -1                       600                      -1.2191688113147108E-6+8.3272283524252E-7i -1.069938878756075E-6+1.5131113529808735E-6i
1                        0                        3                        -2                       1                        400                      -3.007635685755689E-7-1.564853775671352E-6i -2.5720206230662557E-7-1.3972315874352933E-6i
1                        0                        3                        -2                       1                        600                      4.4891169935936975E-7-1.6027251579354928E-5i 7.828199602095678E-7-1.3594109614062336E-5i
1                        0                        3                        -2                       -1                       400                      -9.10741905024042E-8-1.5925930022457217E-6i -1.361668607052979E-7-1.6216903211304651E-6i
1                        0                        3                        -2                       -1                       600                      9.454127678466404E-7-1.457053764899688E-5i 8.926880886087786E-7-1.5524890473777993E-5i
1                        0                        3                        -1                       1                        400                      -4.826751757094811E-7-1.4750660268451698E-7i -6.493486862311349E-7-2.0150771544272046E-7i
1                        0                        3                        -1                       1                        600                      -3.5531623803593453E-6-1.931210057263138E-6i -4.6465098333061295E-6-2.2595715183462367E-6i
1                        0                        3                        -1                       -1                       400                      -6.272623615783374E-7-1.1557344080346241E-7i -5.985760473695747E-7-2.7536035807839334E-8i
1                        0                        3                        -1                       -1                       600                      -4.223413372581584E-6-2.3641567378019926E-6i -4.774606996773871E-6-1.7435347424855688E-6i
1                        0                        3                        0                        1                        400                      1.9256320894873163E-6-6.413544067724895E-5i 2.788419200904159E-6-7.28281290156082E-5i
1                        0                        3                        0                        1                        600                      1.0520375861844961E-4-4.998263741935E-4i 1.1702770183325104E-4-6.083873409871173E-4i
1                        0                        3                        0                        -1                       400                      2.6805394403565068E-6-7.339441223020589E-5i 1.8252255040213428E-6-6.465836705985297E-5i
1                        0                        3                        0                        -1                       600                      1.175237043189347E-4-6.094425620031273E-4i 1.0580836829549377E-4-5.006327672561483E-4i
1                        0                        3                        1                        1                        400                      -3.946806756284361E-7+1.6063777329335566E-7i -5.658225020255988E-7+1.8243260275019544E-7i
1                        0                        3                        1                        1                        600                      -3.962191714683173E-6+3.738275090325368E-7i -5.102417233147086E-6+3.0579842833563004E-7i
1                        0                        3                        1                        -1                       400                      -6.964027994765543E-7+1.7580524249306432E-7i -6.720937744129568E-7+1.3878780793651663E-7i
1                        0                        3                        1                        -1                       600                      -4.4914133509907705E-6+1.0853437516331193E-7i -5.048499398419141E-6+1.6977418093414676E-8i
1                        0                        3                        2                        1                        400                      3.2088393297239056E-7-1.489250777669101E-6i 3.2208066689874983E-7-1.3605510424269105E-6i
1                        0                        3                        2                        1                        600                      4.972857645854992E-6-1.4870084386087314E-5i 5.0313461946373195E-6-1.29512693644246E-5i
1                        0                        3                        2                        -1                       400                      3.4821972341412826E-7-1.6117457865410669E-6i 3.7908091083104594E-7-1.626686306613453E-6i
1                        0                        3                        2                        -1                       600                      5.115155664176957E-6-1.3792686429513183E-5i 5.218304696533926E-6-1.4681301591389034E-5i
1                        0                        3                        3                        1                        400                      -2.638716786735532E-7+3.685517844402426E-8i -3.4696329101085955E-7-4.501737742214062E-8i
1                        0                        3                        3                        1                        600                      -9.236799286769026E-7-1.0123988577287448E-6i -1.4735757024161536E-6-1.9457864534350683E-6i
1                        0                        3                        3                        -1                       400                      -1.0736970079144089E-7-1.7139634243515836E-7i -5.4795329406759877E-8-2.1111751703184364E-7i
1                        0                        3                        3                        -1                       600                      -6.72939636042091E-7-1.2175139173185824E-6i -6.655230391540943E-7-1.5446064102719166E-6i
1                        1                        1                        -1                       1                        400                      -8.882871885223533E-5+0.0010164544552485031i -9.16102221418037E-5+0.0011136022989089293i
1                        1                        1                        -1                       1                        600                      -0.001278617280404363+0.00334141714977127i -0.001329288780456881+0.004239369269130725i
1                        1                        1                        -1                       -1                       400                      -8.960836890349063E-5+0.001115312869922242i -9.090866681470801E-5+0.0010213985163461737i
1                        1                        1                        -1                       -1                       600                      -0.0013247649966521273+0.004236718389297861i -0.0012959572266925982+0.0033522944550373576i